# t (s)	mx ()	my ()	mz ()	E_total (J)
0	3.4519346e-06	0.050300695	-2.4383717e-09	-1.2493757e-16
2.50141051564756e-10	1.3342494e-06	0.050300695	-2.2514841e-06	-1.249373e-16
5.001611397670973e-10	-1.830923e-06	0.050300702	-1.880364e-06	-1.2493698e-16
7.500496294721446e-10	-1.3988159e-06	0.050300702	-1.41263e-07	-1.2493665e-16
1.0001784820538262e-09	1.9525808e-06	0.050300702	-3.0111184e-07	-1.2493643e-16
1.250058375296183e-09	3.1689917e-06	0.050300702	-2.7482617e-06	-1.2493625e-16
1.5001263151928446e-09	3.3455024e-07	0.050300702	-4.3955174e-06	-1.2493602e-16
1.7500674727052738e-09	-2.4052908e-06	0.050300688	-3.2701817e-06	-1.2493584e-16
2.0000983355779592e-09	-1.1146587e-06	0.050300688	-1.4345754e-06	-1.2493569e-16
2.2500101345189623e-09	2.181637e-06	0.050300725	-1.9103832e-06	-1.2493559e-16
2.5000687797895454e-09	2.4374083e-06	0.050300695	-4.158616e-06	-1.2493547e-16
2.7500167150180374e-09	-8.7541986e-07	0.050300688	-4.8999354e-06	-1.2493533e-16
3.000088115339141e-09	-2.9399987e-06	0.050300695	-2.9678235e-06	-1.2493522e-16
3.2501395380431414e-09	-8.48894e-07	0.050300688	-1.069795e-06	-1.2493515e-16
3.5000848316304987e-09	2.188068e-06	0.050300714	-1.7456575e-06	-1.2493508e-16
3.750064329393044e-09	1.4941369e-06	0.05030071	-3.5983867e-06	-1.24935e-16
4.000019062509141e-09	-1.9647732e-06	0.050300706	-3.386194e-06	-1.2493491e-16
4.250158197875029e-09	-3.1676805e-06	0.05030071	-8.4969133e-07	-1.249348e-16
4.5001224653853434e-09	-3.8331788e-07	0.05030072	8.736415e-07	-1.2493485e-16
4.750096481286898e-09	2.2191803e-06	0.050300706	-8.062883e-08	-1.2493477e-16
5.000036555133696e-09	6.7462923e-07	0.05030071	-1.5604496e-06	-1.2493473e-16
5.250029556870299e-09	-2.6702305e-06	0.05030071	-6.057999e-07	-1.2493466e-16
5.500079017272605e-09	-2.877178e-06	0.050300695	2.1166152e-06	-1.2493466e-16
5.750064934444195e-09	4.2145658e-07	0.050300702	3.2992796e-06	-1.249346e-16
6.0001346571988196e-09	2.3605417e-06	0.050300702	1.8794971e-06	-1.2493461e-16
6.250150335803514e-09	1.0919567e-07	0.050300717	6.269325e-07	-1.2493453e-16
6.500136674780215e-09	-2.867781e-06	0.050300706	1.9911201e-06	-1.2493447e-16
6.750067838394609e-09	-2.0607674e-06	0.050300717	4.433502e-06	-1.2493454e-16
7.000144338752994e-09	1.4829309e-06	0.050300717	4.7297913e-06	-1.249345e-16
7.25013118672054e-09	2.573592e-06	0.050300717	2.7323854e-06	-1.2493447e-16
7.50007079500974e-09	-2.390468e-07	0.050300706	1.5993552e-06	-1.249344e-16
7.750113448081224e-09	-2.6493522e-06	0.05030071	3.083836e-06	-1.2493441e-16
8.000003370658036e-09	-9.270877e-07	0.05030071	4.92291e-06	-1.2493438e-16
8.25008831811593e-09	2.5249012e-06	0.050300702	4.19595e-06	-1.2493443e-16
8.500156967485299e-09	2.6592993e-06	0.050300717	1.6962398e-06	-1.2493433e-16
8.750089068281712e-09	-5.5744226e-07	0.05030071	7.522106e-07	-1.2493436e-16
9.000004963297063e-09	-2.2533595e-06	0.050300717	2.2582574e-06	-1.2493437e-16
9.250121217028842e-09	2.0762546e-07	0.05030071	3.3950805e-06	-1.2493438e-16
9.50009426288457e-09	3.2379846e-06	0.05030071	1.7995184e-06	-1.2493442e-16
9.750053834018485e-09	2.3728383e-06	0.0503007	-8.6388803e-07	-1.249344e-16
1.0000042048624365e-08	-1.0547586e-06	0.05030071	-1.3947487e-06	-1.2493437e-16
1.025003498680059e-08	-1.938525e-06	0.050300695	2.2703951e-07	-1.2493438e-16
1.0500000546822357e-08	1.024979e-06	0.05030068	8.066134e-07	-1.2493438e-16
1.0750062588046099e-08	3.429058e-06	0.050300684	-1.2848052e-06	-1.2493437e-16
1.1000159702444521e-08	1.5806197e-06	0.05030068	-3.6573952e-06	-1.2493437e-16
1.1250113985551222e-08	-1.7743587e-06	0.050300676	-3.4533848e-06	-1.2493434e-16
1.150011245340896e-08	-1.7866073e-06	0.050300665	-1.5790354e-06	-1.2493438e-16
1.175008586884406e-08	1.4675437e-06	0.050300676	-1.3388828e-06	-1.2493434e-16
1.2000098309850009e-08	3.0511635e-06	0.050300676	-3.5061078e-06	-1.2493434e-16
1.2250067450105869e-08	4.1951267e-07	0.050300688	-5.161654e-06	-1.249343e-16
1.2500162942503673e-08	-2.578258e-06	0.05030067	-4.036806e-06	-1.2493429e-16
1.2750114577528803e-08	-1.6873798e-06	0.05030068	-1.8703937e-06	-1.2493428e-16
1.3000073459799677e-08	1.6836556e-06	0.050300706	-1.8402663e-06	-1.2493428e-16
1.3250025192264985e-08	2.3129744e-06	0.05030069	-3.8104708e-06	-1.2493433e-16
1.3500134658922803e-08	-8.216161e-07	0.05030068	-4.5527113e-06	-1.2493428e-16
1.3750029704450955e-08	-3.2078747e-06	0.05030068	-2.559857e-06	-1.2493433e-16
1.4000147064835346e-08	-1.424656e-06	0.05030069	-2.8425998e-07	-1.2493429e-16
1.4250057710432965e-08	1.8381772e-06	0.050300695	-5.15526e-07	-1.2493428e-16
1.4500110697333188e-08	1.5573053e-06	0.050300684	-2.2389672e-06	-1.2493433e-16
1.4750012368458125e-08	-1.817755e-06	0.050300673	-2.1551414e-06	-1.2493426e-16
1.500003073669567e-08	-3.3765266e-06	0.050300684	3.8537112e-07	-1.2493426e-16
1.5250114580277246e-08	-7.7207676e-07	0.05030071	2.401092e-06	-1.2493429e-16
1.5500086852272813e-08	2.1332282e-06	0.050300688	1.6860529e-06	-1.2493429e-16
1.575004318434557e-08	1.0024452e-06	0.050300688	8.799813e-08	-1.2493426e-16
1.6000142548803985e-08	-2.3652667e-06	0.0503007	7.2869386e-07	-1.2493429e-16
1.6250082328778925e-08	-2.9560483e-06	0.05030071	3.3408946e-06	-1.2493429e-16
1.6500023112647685e-08	2.6420594e-07	0.050300714	4.661625e-06	-1.2493428e-16
1.675001403103857e-08	2.575159e-06	0.050300702	3.2453104e-06	-1.2493429e-16
1.7000097427134652e-08	6.581123e-07	0.050300706	1.6343594e-06	-1.2493425e-16
1.725003929003187e-08	-2.4527283e-06	0.050300714	2.5417587e-06	-1.2493426e-16
1.750000901922105e-08	-2.048251e-06	0.050300725	4.8084694e-06	-1.2493429e-16
1.77500310511438e-08	1.4814959e-06	0.050300717	5.139871e-06	-1.249343e-16
1.800008042992328e-08	2.9951525e-06	0.050300717	2.9767643e-06	-1.2493424e-16
1.8250080444554645e-08	3.8594462e-07	0.050300725	1.3640794e-06	-1.2493429e-16
1.850004352983191e-08	-2.2886422e-06	0.050300725	2.3893876e-06	-1.249343e-16
1.8750030787896232e-08	-9.774626e-07	0.05030072	4.1106614e-06	-1.2493428e-16
1.900004979400541e-08	2.539567e-06	0.050300725	3.4440648e-06	-1.2493425e-16
1.9250068330311683e-08	3.0974668e-06	0.050300717	7.570874e-07	-1.2493424e-16
1.950000918381605e-08	-4.851979e-08	0.050300725	-6.3950364e-07	-1.2493428e-16
1.9750123743259438e-08	-2.1285334e-06	0.050300717	5.680865e-07	-1.249343e-16
2.0000006911023152e-08	-5.641169e-08	0.050300717	1.7945333e-06	-1.2493434e-16
2.0250141080420896e-08	3.1561153e-06	0.050300714	3.8710508e-07	-1.2493425e-16
2.0500082343677823e-08	2.6685682e-06	0.050300714	-2.378171e-06	-1.249343e-16
2.075012518907007e-08	-7.943058e-07	0.05030071	-3.1951884e-06	-1.249343e-16
2.1000035145159e-08	-2.1440019e-06	0.0503007	-1.6108427e-06	-1.2493432e-16
2.12500200261087e-08	5.3453664e-07	0.05030071	-6.8848783e-07	-1.2493424e-16
2.1500150743454333e-08	3.2147682e-06	0.050300725	-2.448559e-06	-1.2493426e-16
2.1750067439744044e-08	1.6997113e-06	0.050300706	-4.807169e-06	-1.2493432e-16
2.2000110266860186e-08	-1.7716326e-06	0.050300702	-4.6954374e-06	-1.249343e-16
2.225001062669175e-08	-2.2743393e-06	0.050300717	-2.6068362e-06	-1.249343e-16
2.2500004317368387e-08	8.661773e-07	0.050300717	-1.8529458e-06	-1.2493428e-16
2.2750154156163376e-08	2.7990488e-06	0.05030071	-3.6327947e-06	-1.2493433e-16
2.3000041042068272e-08	4.4627348e-07	0.05030071	-5.231554e-06	-1.2493429e-16
2.325004906214904e-08	-2.7260317e-06	0.0503007	-4.0838936e-06	-1.2493428e-16
2.350005545226875e-08	-2.2636e-06	0.050300706	-1.5892224e-06	-1.2493426e-16
2.3750118322068332e-08	1.1159073e-06	0.05030071	-1.0244413e-06	-1.2493424e-16
2.4000038161704832e-08	2.1989879e-06	0.050300688	-2.6921794e-06	-1.249343e-16
2.425007313093722e-08	-7.23835e-07	0.050300695	-3.473542e-06	-1.2493422e-16
2.4500005165215576e-08	-3.3348501e-06	0.05030069	-1.4892491e-06	-1.2493417e-16
2.475007217981275e-08	-1.8959973e-06	0.0503007	1.0797652e-06	-1.2493424e-16
2.5000090186699926e-08	1.5071753e-06	0.050300684	1.2331659e-06	-1.2493422e-16
2.5250149352407855e-08	1.7111317e-06	0.050300673	-4.164739e-07	-1.2493418e-16
2.5500088848203446e-08	-1.5203069e-06	0.050300688	-5.67653e-07	-1.2493416e-16
2.5750026243940354e-08	-3.3641745e-06	0.050300695	1.8323551e-06	-1.2493416e-16
2.600002280426698e-08	-1.0314302e-06	0.050300684	3.998171e-06	-1.2493418e-16
2.6250045936946462e-08	2.1207109e-06	0.05030068	3.4364787e-06	-1.2493418e-16
2.650012151273436e-08	1.4468392e-06	0.050300695	1.6314333e-06	-1.2493417e-16
2.675010139629745e-08	-1.8875462e-06	0.05030069	1.8408082e-06	-1.2493412e-16
2.7000106389537887e-08	-2.814869e-06	0.050300702	4.197034e-06	-1.2493416e-16
2.7250063947246014e-08	1.9710501e-07	0.05030068	5.536838e-06	-1.2493413e-16
2.7500032886366446e-08	2.8373825e-06	0.050300684	4.06482e-06	-1.2493414e-16
2.7750151184673126e-08	1.2969781e-06	0.050300695	2.0492078e-06	-1.2493409e-16
2.800003685022088e-08	-1.9439356e-06	0.05030069	2.4318695e-06	-1.2493412e-16
2.825002905838739e-08	-1.9425581e-06	0.050300702	4.4494327e-06	-1.2493414e-16
2.8500051804631375e-08	1.4760321e-06	0.050300688	4.783327e-06	-1.2493414e-16
2.8750129558298087e-08	3.3457163e-06	0.05030069	2.4805286e-06	-1.249341e-16
2.9000043981881815e-08	9.936813e-07	0.050300702	4.2633576e-07	-1.2493414e-16
2.9250005923950248e-08	-1.9313586e-06	0.050300706	1.0079688e-06	-1.2493417e-16
2.950012452668498e-08	-1.0547744e-06	0.0503007	2.6392936e-06	-1.2493414e-16
2.9750020312737446e-08	2.444856e-06	0.050300684	2.0861626e-06	-1.2493412e-16
3.0000097421128885e-08	3.3712874e-06	0.050300695	-6.7109414e-07	-1.249341e-16
3.025015279027228e-08	3.426104e-07	0.05030069	-2.39589e-06	-1.2493417e-16
3.050012430998343e-08	-2.0784714e-06	0.050300706	-1.3929606e-06	-1.2493417e-16
3.0750034378225984e-08	-4.1986604e-07	0.050300695	-7.2609296e-09	-1.2493416e-16
3.1000059289519165e-08	2.88596e-06	0.050300706	-1.111464e-06	-1.2493414e-16
3.125013074248432e-08	2.7711271e-06	0.050300702	-3.8176777e-06	-1.2493418e-16
3.1500120758626923e-08	-6.7515646e-07	0.050300706	-4.767667e-06	-1.2493421e-16
3.175012493974354e-08	-2.4149322e-06	0.050300714	-3.1235543e-06	-1.2493421e-16
3.200006592552286e-08	-5.2060827e-08	0.050300706	-1.8014691e-06	-1.2493417e-16
3.225000634333186e-08	2.8314594e-06	0.05030071	-3.1212244e-06	-1.249342e-16
3.2500049395174896e-08	1.6942421e-06	0.05030071	-5.3284384e-06	-1.2493421e-16
3.2750062360841547e-08	-1.8516552e-06	0.05030071	-5.216165e-06	-1.2493426e-16
3.3000034929132524e-08	-2.7412511e-06	0.05030071	-2.8985196e-06	-1.2493418e-16
3.325004577021414e-08	2.0760503e-07	0.050300725	-1.6227093e-06	-1.2493418e-16
3.3500074240477404e-08	2.4718809e-06	0.050300706	-2.9602918e-06	-1.2493422e-16
3.3750142107384925e-08	4.950748e-07	0.050300695	-4.4636295e-06	-1.249342e-16
3.400000053698777e-08	-2.8382021e-06	0.050300695	-3.32388e-06	-1.2493418e-16
3.425007490758074e-08	-2.756299e-06	0.05030071	-5.632097e-07	-1.2493418e-16
3.450010731271427e-08	6.218132e-07	0.0503007	4.66596e-07	-1.249342e-16
3.475001535841403e-08	2.135358e-06	0.050300684	-9.517236e-07	-1.2493418e-16
3.5000134991129145e-08	-4.982415e-07	0.0503007	-1.8356063e-06	-1.2493417e-16
3.5250152651677566e-08	-3.3311915e-06	0.050300695	2.4058602e-08	-1.2493417e-16
3.550010224543271e-08	-2.2324932e-06	0.050300706	2.7556853e-06	-1.2493417e-16
3.57501302286584e-08	1.316006e-06	0.05030069	3.169775e-06	-1.2493418e-16
3.6000162318054456e-08	1.998131e-06	0.050300684	1.4793873e-06	-1.2493412e-16
3.625011730437812e-08	-1.0818003e-06	0.050300688	9.828264e-07	-1.2493409e-16
3.650008562629478e-08	-3.19803e-06	0.050300702	3.1049685e-06	-1.2493412e-16
3.675010395619928e-08	-1.1555056e-06	0.0503007	5.2835726e-06	-1.2493412e-16
3.7000049613117976e-08	2.2237284e-06	0.050300684	4.7569924e-06	-1.2493408e-16
3.725003010831793e-08	2.0004475e-06	0.05030069	2.666712e-06	-1.2493408e-16
3.750001733296372e-08	-1.3092717e-06	0.0503007	2.351891e-06	-1.2493409e-16
3.775014880199057e-08	-2.5935337e-06	0.050300702	4.353415e-06	-1.2493412e-16
3.8000015684703197e-08	1.9104728e-07	0.050300688	5.6339395e-06	-1.249341e-16
3.8250128975918205e-08	3.1078007e-06	0.05030069	4.0782584e-06	-1.2493402e-16
3.850013168295703e-08	1.9249878e-06	0.05030069	1.6600435e-06	-1.2493405e-16
3.8750055297526795e-08	-1.4140512e-06	0.050300695	1.5109235e-06	-1.249341e-16
3.9000097334518324e-08	-1.8382034e-06	0.050300684	3.2615662e-06	-1.2493412e-16
3.925014396316485e-08	1.4083292e-06	0.050300684	3.6141005e-06	-1.2493406e-16
3.9500012206338265e-08	3.5884639e-06	0.0503007	1.2670864e-06	-1.2493408e-16
3.975000211442153e-08	1.4941661e-06	0.050300684	-1.1303208e-06	-1.249341e-16
4.000011293833958e-08	-1.6499864e-06	0.050300684	-9.1043387e-07	-1.2493412e-16
4.025015700904346e-08	-1.2302229e-06	0.050300695	6.7911367e-07	-1.2493409e-16
4.050011744275647e-08	2.1901087e-06	0.0503007	3.5220927e-07	-1.2493406e-16
4.0750127520028945e-08	3.4363597e-06	0.0503007	-2.3084337e-06	-1.249341e-16
4.100000103735526e-08	5.953449e-07	0.05030071	-4.2023444e-06	-1.2493414e-16
4.1250102083928804e-08	-2.1391459e-06	0.050300695	-3.3148851e-06	-1.2493409e-16
4.150010046189206e-08	-9.063391e-07	0.0503007	-1.6731566e-06	-1.2493408e-16
4.175009064275599e-08	2.456163e-06	0.05030073	-2.3342263e-06	-1.2493406e-16
4.200010969136368e-08	2.6861633e-06	0.050300702	-4.8154593e-06	-1.2493413e-16
4.2250016335323816e-08	-6.5756086e-07	0.050300702	-5.7830052e-06	-1.249341e-16
4.250010733813142e-08	-2.7520543e-06	0.050300714	-4.0274317e-06	-1.2493408e-16
4.275002476725204e-08	-7.292145e-07	0.050300725	-2.2384254e-06	-1.2493406e-16
4.3000054428747814e-08	2.3501839e-06	0.05030072	-3.018921e-06	-1.2493408e-16
4.3250109981465856e-08	1.6254613e-06	0.05030072	-4.997253e-06	-1.249341e-16
4.3500153204864704e-08	-1.9372128e-06	0.050300717	-4.8708916e-06	-1.249341e-16
4.3750009854137665e-08	-3.1615125e-06	0.050300717	-2.3489106e-06	-1.2493404e-16
4.400000546844808e-08	-4.3503474e-07	0.05030072	-5.688992e-07	-1.249341e-16
4.425003455655667e-08	2.1631029e-06	0.050300714	-1.4731017e-06	-1.2493413e-16
4.450012294937661e-08	5.8792375e-07	0.05030071	-2.9026378e-06	-1.2493412e-16
4.4750138764607024e-08	-2.831397e-06	0.05030071	-1.8566847e-06	-1.2493409e-16
4.500009637539401e-08	-3.071045e-06	0.050300714	1.0350617e-06	-1.249341e-16
4.525001861749013e-08	2.1012225e-07	0.050300706	2.4158305e-06	-1.2493414e-16
4.550011910877909e-08	2.1518827e-06	0.0503007	1.1849403e-06	-1.2493412e-16
4.575009859676714e-08	-1.3545325e-07	0.0503007	1.07721846e-07	-1.2493412e-16
4.6000056344998034e-08	-3.117582e-06	0.050300706	1.6778166e-06	-1.2493409e-16
4.6250133209007166e-08	-2.3434511e-06	0.05030071	4.3832174e-06	-1.2493413e-16
4.65001420066748e-08	1.238075e-06	0.05030069	4.933314e-06	-1.2493412e-16
4.6750152654459385e-08	2.3558653e-06	0.050300702	3.1463667e-06	-1.2493409e-16
4.700002309860024e-08	-4.7646282e-07	0.050300717	2.1866235e-06	-1.2493409e-16
4.7250036292226606e-08	-2.8530387e-06	0.050300695	3.862056e-06	-1.2493414e-16
4.7500036000901706e-08	-1.1701667e-06	0.050300695	5.924485e-06	-1.2493413e-16
4.775016174170421e-08	2.3897765e-06	0.050300702	5.377314e-06	-1.2493408e-16
4.800011199404364e-08	2.565124e-06	0.05030069	2.975247e-06	-1.249341e-16
4.8250090992442366e-08	-6.46074e-07	0.0503007	2.0766258e-06	-1.2493414e-16
4.850012838539865e-08	-2.2862428e-06	0.050300695	3.6499716e-06	-1.2493416e-16
4.875003301775891e-08	1.5043251e-07	0.05030068	4.8525767e-06	-1.2493417e-16
4.900003313214353e-08	3.3074205e-06	0.050300702	3.2652508e-06	-1.2493416e-16
4.925010773562317e-08	2.4809844e-06	0.0503007	5.041469e-07	-1.2493417e-16
4.950004241705736e-08	-9.260914e-07	0.050300688	-1.4489348e-07	-1.2493421e-16
4.9750095468080736e-08	-1.7813327e-06	0.05030069	1.3718821e-06	-1.2493418e-16
5.000013184853044e-08	1.186088e-06	0.050300688	1.8463352e-06	-1.2493421e-16
5.0250131095633436e-08	3.6555161e-06	0.05030069	-4.1289763e-07	-1.2493418e-16
5.050011212911662e-08	1.8681636e-06	0.050300688	-3.0355561e-06	-1.2493424e-16
5.0750068559130065e-08	-1.5167379e-06	0.050300673	-3.0755455e-06	-1.2493422e-16
5.1000028241929414e-08	-1.5286383e-06	0.05030068	-1.3998422e-06	-1.2493421e-16
5.12500573388038e-08	1.7380306e-06	0.050300695	-1.3492865e-06	-1.2493422e-16
5.150002238868971e-08	3.3361748e-06	0.050300676	-3.7756834e-06	-1.2493425e-16
5.175001186481898e-08	7.248218e-07	0.05030068	-5.7105044e-06	-1.2493425e-16
5.2000056155886257e-08	-2.350547e-06	0.050300684	-4.813021e-06	-1.2493424e-16
5.225001029826695e-08	-1.4779196e-06	0.050300688	-2.8112802e-06	-1.2493422e-16
5.250001659013781e-08	1.8711024e-06	0.050300695	-2.9309228e-06	-1.2493421e-16
5.2750037474508335e-08	2.503453e-06	0.05030069	-5.087094e-06	-1.2493424e-16
5.3000158524689036e-08	-6.771109e-07	0.05030068	-5.995631e-06	-1.2493417e-16
5.325011582639687e-08	-3.1285153e-06	0.05030069	-4.0932136e-06	-1.2493424e-16
5.3500058718113336e-08	-1.4099445e-06	0.05030071	-1.8228184e-06	-1.2493421e-16
5.3750041395825125e-08	1.8409335e-06	0.050300688	-2.0543011e-06	-1.2493428e-16
5.4000083583234234e-08	1.5470317e-06	0.050300688	-3.794215e-06	-1.2493421e-16
5.425014363321826e-08	-1.9007765e-06	0.050300695	-3.6874685e-06	-1.249342e-16
5.4500154481938613e-08	-3.4958234e-06	0.050300695	-1.0385296e-06	-1.2493418e-16
5.475003232384226e-08	-9.853223e-07	0.050300695	1.152537e-06	-1.2493424e-16
5.500004492483795e-08	1.952479e-06	0.050300688	6.0341574e-07	-1.2493422e-16
5.5250154198460817e-08	7.948648e-07	0.050300688	-8.473613e-07	-1.2493418e-16
5.5500088640752825e-08	-2.6112084e-06	0.050300706	-2.7093021e-08	-1.2493418e-16
5.575002729170715e-08	-3.212147e-06	0.050300706	2.8432498e-06	-1.2493421e-16
5.600009289568937e-08	-7.048768e-08	0.050300695	4.444231e-06	-1.2493424e-16
5.6250121390601924e-08	2.3306943e-06	0.05030071	3.2692606e-06	-1.2493416e-16
5.650007737700064e-08	4.0117408e-07	0.05030071	1.857064e-06	-1.2493418e-16
5.675003544469096e-08	-2.7307585e-06	0.050300706	2.9893356e-06	-1.2493416e-16
5.7000048715222864e-08	-2.31352e-06	0.05030072	5.533912e-06	-1.249342e-16
5.725011871122276e-08	1.2355649e-06	0.050300706	6.1052497e-06	-1.2493413e-16
5.750003092414983e-08	2.8310326e-06	0.050300706	4.106218e-06	-1.249341e-16
5.775001794739237e-08	2.4899236e-07	0.050300714	2.602989e-06	-1.2493414e-16
5.80000067891527e-08	-2.430438e-06	0.050300702	3.7660382e-06	-1.2493417e-16
5.8250070738829377e-08	-1.0828428e-06	0.050300702	5.630905e-06	-1.2493412e-16
5.850015007813592e-08	2.5239563e-06	0.050300706	5.0269473e-06	-1.2493408e-16
5.8750139527012526e-08	3.1179284e-06	0.050300695	2.3159114e-06	-1.2493413e-16
5.900007908250706e-08	1.8753028e-08	0.0503007	8.6415895e-07	-1.2493412e-16
5.925005675456962e-08	-2.065937e-06	0.05030069	2.0404295e-06	-1.2493413e-16
5.9500083231507796e-08	7.656022e-08	0.050300688	3.205321e-06	-1.2493409e-16
5.97500028772338e-08	3.3656224e-06	0.0503007	1.6590682e-06	-1.249341e-16
6.000012513607902e-08	2.8940283e-06	0.050300688	-1.3233315e-06	-1.249341e-16
6.025000046355433e-08	-5.3231116e-07	0.050300673	-2.3492357e-06	-1.2493416e-16
6.05001132134059e-08	-1.9033638e-06	0.05030068	-9.554083e-07	-1.2493406e-16
6.07500115754844e-08	8.218993e-07	0.05030068	-2.4557113e-07	-1.2493408e-16
6.100001162613686e-08	3.5292862e-06	0.05030068	-2.2690947e-06	-1.2493406e-16
6.125015219468059e-08	2.0138598e-06	0.050300676	-4.925511e-06	-1.2493408e-16
6.150012686585691e-08	-1.4880898e-06	0.050300673	-5.071922e-06	-1.2493406e-16
6.175002940009545e-08	-1.9931729e-06	0.05030068	-3.2042374e-06	-1.2493404e-16
6.200003663115856e-08	1.1175897e-06	0.050300688	-2.6584755e-06	-1.24934e-16
6.225006463370164e-08	3.0732679e-06	0.05030068	-4.681945e-06	-1.2493401e-16
6.250010996982265e-08	6.8824875e-07	0.050300676	-6.5152212e-06	-1.2493405e-16
6.275004878322756e-08	-2.5987501e-06	0.05030068	-5.5355376e-06	-1.2493401e-16
6.300004089712098e-08	-2.1503286e-06	0.050300695	-3.121116e-06	-1.2493398e-16
6.325014600712872e-08	1.18604e-06	0.050300688	-2.6237965e-06	-1.2493397e-16
6.350015720121646e-08	2.2925715e-06	0.05030068	-4.3906407e-06	-1.2493398e-16
6.375013925699015e-08	-7.06848e-07	0.05030068	-5.226894e-06	-1.2493385e-16
6.400013278336274e-08	-3.45301e-06	0.05030068	-3.1988188e-06	-1.2493392e-16
6.425011333842882e-08	-2.0295577e-06	0.050300684	-4.938516e-07	-1.2493393e-16
6.450015473579407e-08	1.3656567e-06	0.050300673	-2.231923e-07	-1.2493392e-16
6.475010872749983e-08	1.5767353e-06	0.050300673	-1.7791444e-06	-1.2493388e-16
6.500011692302402e-08	-1.7497701e-06	0.05030069	-1.7881393e-06	-1.2493389e-16
6.52500162097531e-08	-3.6822767e-06	0.05030069	8.5917384e-07	-1.2493387e-16
6.550007267199049e-08	-1.3546288e-06	0.050300695	3.3181364e-06	-1.2493389e-16
6.57500802364436e-08	1.8659154e-06	0.050300702	2.9975718e-06	-1.2493385e-16
6.600005295157812e-08	1.1618647e-06	0.0503007	1.4055859e-06	-1.2493384e-16
6.625007031086049e-08	-2.1977853e-06	0.050300717	1.8554384e-06	-1.249339e-16
6.650002853524936e-08	-3.1872046e-06	0.050300714	4.5362385e-06	-1.2493389e-16
6.675005933960864e-08	-1.2712839e-07	0.050300695	6.1867454e-06	-1.2493387e-16
6.70000101463051e-08	2.6294488e-06	0.05030071	4.9328805e-06	-1.2493384e-16
6.72500083918652e-08	1.044967e-06	0.050300725	3.0880624e-06	-1.2493385e-16
6.75000265343773e-08	-2.1616813e-06	0.05030072	3.672513e-06	-1.2493384e-16
6.775014292763206e-08	-2.167796e-06	0.050300717	5.914298e-06	-1.2493387e-16
6.800005612708196e-08	1.3436251e-06	0.05030072	6.4042483e-06	-1.249338e-16
6.825007685623099e-08	3.3129236e-06	0.050300725	4.167015e-06	-1.2493384e-16
6.850009870144029e-08	9.610815e-07	0.050300725	2.1147728e-06	-1.2493384e-16
6.875009472904576e-08	-1.944435e-06	0.050300717	2.7350945e-06	-1.2493385e-16
6.900003599648891e-08	-1.0136755e-06	0.050300725	4.374114e-06	-1.2493379e-16
6.92500987575389e-08	2.586792e-06	0.050300725	3.7498908e-06	-1.2493376e-16
6.950004410440902e-08	3.559236e-06	0.05030072	8.253618e-07	-1.2493381e-16
6.975002952795643e-08	5.5858027e-07	0.05030072	-1.0772185e-06	-1.2493376e-16
7.000002972124753e-08	-1.8895754e-06	0.05030071	-2.3034485e-07	-1.2493377e-16
7.025007553684963e-08	-1.2225281e-07	0.05030071	9.692799e-07	-1.2493373e-16
7.050012287018361e-08	3.2209637e-06	0.05030071	-3.9609995e-07	-1.2493379e-16
7.075011531670022e-08	3.1002328e-06	0.050300706	-3.4133413e-06	-1.2493383e-16
7.100007487970873e-08	-3.468276e-07	0.0503007	-4.6457485e-06	-1.2493381e-16
7.125012839749244e-08	-2.1489807e-06	0.05030071	-3.249862e-06	-1.2493377e-16
7.150008150894335e-08	2.97673e-07	0.050300714	-2.1732938e-06	-1.249338e-16
7.175007461762123e-08	3.174916e-06	0.05030071	-3.793944e-06	-1.2493383e-16
7.200015016746138e-08	1.9903969e-06	0.050300702	-6.3004277e-06	-1.249338e-16
7.225006555053936e-08	-1.6098242e-06	0.05030071	-6.4224005e-06	-1.2493377e-16
7.250007229497003e-08	-2.5497145e-06	0.050300717	-4.2625993e-06	-1.249338e-16
7.275002506149626e-08	4.1002662e-07	0.0503007	-3.1300024e-06	-1.2493387e-16
7.300013639064606e-08	2.656921e-06	0.05030069	-4.6550144e-06	-1.2493387e-16
7.325005275160497e-08	5.6713407e-07	0.050300684	-6.2886693e-06	-1.249338e-16
7.35000732413868e-08	-2.862483e-06	0.050300695	-5.173954e-06	-1.249338e-16
7.37500530071607e-08	-2.781327e-06	0.050300688	-2.362674e-06	-1.2493385e-16
7.40000234624033e-08	5.570094e-07	0.050300673	-1.2948838e-06	-1.249338e-16
7.425005873644059e-08	2.0497935e-06	0.050300673	-2.6771156e-06	-1.2493379e-16
7.450006264894828e-08	-7.0127555e-07	0.05030068	-3.4521927e-06	-1.2493375e-16
7.475011966184881e-08	-3.599886e-06	0.050300688	-1.3862415e-06	-1.2493381e-16
7.500006968471526e-08	-2.4755348e-06	0.050300684	1.5964291e-06	-1.2493387e-16
7.52500740533351e-08	1.046096e-06	0.050300676	2.228997e-06	-1.249338e-16
7.550009895891016e-08	1.7051711e-06	0.05030068	7.595799e-07	-1.249338e-16
7.575014761738255e-08	-1.440835e-06	0.05030071	5.299395e-07	-1.2493381e-16
7.600013332462372e-08	-3.6004847e-06	0.0503007	2.9885769e-06	-1.2493383e-16
7.625007838335958e-08	-1.490457e-06	0.050300684	5.508228e-06	-1.2493385e-16
7.650010968949898e-08	1.9418903e-06	0.05030069	5.2498685e-06	-1.249338e-16
7.675008814900875e-08	1.6732126e-06	0.050300695	3.3892284e-06	-1.2493379e-16
7.700015580650453e-08	-1.6253498e-06	0.0503007	3.3348256e-06	-1.2493388e-16
7.725005027998922e-08	-2.9336918e-06	0.05030069	5.647161e-06	-1.249339e-16
7.750005235738389e-08	-3.1497542e-08	0.05030069	7.1779164e-06	-1.2493387e-16
7.775011763752512e-08	2.991388e-06	0.050300695	5.758242e-06	-1.2493385e-16
7.800006938727836e-08	1.7691567e-06	0.050300702	3.4245577e-06	-1.249339e-16
7.825000068043744e-08	-1.5158029e-06	0.050300702	3.3811007e-06	-1.2493384e-16
7.850002280269504e-08	-1.9202403e-06	0.0503007	5.240224e-06	-1.2493387e-16
7.875015299480515e-08	1.4620952e-06	0.05030069	5.618117e-06	-1.249338e-16
7.900013596661913e-08	3.7369962e-06	0.050300706	3.1596965e-06	-1.249339e-16
7.925011277481041e-08	1.6225846e-06	0.050300706	6.17179e-07	-1.2493393e-16
7.950010775787722e-08	-1.516041e-06	0.05030068	7.2533436e-07	-1.249339e-16
7.975011587498382e-08	-1.0320581e-06	0.050300702	2.2047216e-06	-1.249339e-16
8.000010813404074e-08	2.5091017e-06	0.050300695	1.660152e-06	-1.2493393e-16
8.025007197334116e-08	3.8099424e-06	0.050300695	-1.3305925e-06	-1.2493397e-16
8.050007139944372e-08	9.282829e-07	0.050300684	-3.5426833e-06	-1.2493397e-16
8.07500135669824e-08	-1.8601096e-06	0.05030068	-2.895973e-06	-1.2493393e-16
8.100016615526648e-08	-5.380313e-07	0.050300695	-1.5023621e-06	-1.249339e-16
8.125000741476529e-08	2.8649577e-06	0.050300695	-2.5054542e-06	-1.24934e-16
8.150004620838408e-08	3.0957094e-06	0.050300684	-5.374984e-06	-1.24934e-16
8.175009402869787e-08	-3.348968e-07	0.050300695	-6.659139e-06	-1.2493395e-16
8.200011928819405e-08	-2.5267618e-06	0.050300714	-5.1183592e-06	-1.2493393e-16
8.225011915574658e-08	-4.2298151e-07	0.0503007	-3.536506e-06	-1.2493396e-16
8.250016147550094e-08	2.642009e-06	0.0503007	-4.592592e-06	-1.2493395e-16
8.275015066664276e-08	1.8337525e-06	0.05030069	-6.8169834e-06	-1.2493398e-16
8.30001394384652e-08	-1.8156475e-06	0.050300688	-6.8204513e-06	-1.2493392e-16
8.325002184722005e-08	-3.1557904e-06	0.050300688	-4.3205782e-06	-1.2493398e-16
8.350003102592092e-08	-3.667578e-07	0.05030068	-2.5641918e-06	-1.2493402e-16
8.37501648476958e-08	2.1909518e-06	0.05030067	-3.523989e-06	-1.2493396e-16
8.400003285206843e-08	4.8541e-07	0.050300673	-4.953092e-06	-1.2493396e-16
8.425003710808113e-08	-3.0157373e-06	0.05030069	-3.7699397e-06	-1.2493395e-16
8.450005183404214e-08	-3.3362564e-06	0.050300676	-6.5418806e-07	-1.24934e-16
8.475008788584725e-08	1.1749481e-09	0.050300658	9.352511e-07	-1.2493402e-16
8.500003234312437e-08	1.9247063e-06	0.050300676	-1.3492324e-07	-1.2493401e-16
8.525004462596737e-08	-4.869509e-07	0.050300688	-9.823929e-07	-1.24934e-16
8.550008254947016e-08	-3.5395287e-06	0.050300673	9.3557617e-07	-1.2493408e-16
8.575010293956397e-08	-2.7692402e-06	0.050300665	4.0300324e-06	-1.2493409e-16
8.600007906792221e-08	8.889561e-07	0.05030067	4.8958173e-06	-1.2493408e-16
8.625014121163565e-08	2.0340979e-06	0.050300673	3.3565002e-06	-1.2493404e-16
8.65001265684317e-08	-8.753299e-07	0.05030068	2.7068095e-06	-1.2493408e-16
8.675007087321702e-08	-3.297342e-06	0.05030066	4.7685885e-06	-1.2493409e-16
8.700013122936724e-08	-1.4846984e-06	0.05030066	7.179542e-06	-1.2493408e-16
8.7250044042383e-08	2.1454719e-06	0.05030067	6.8567015e-06	-1.2493405e-16
8.750005051943272e-08	2.3550276e-06	0.050300673	4.6099317e-06	-1.2493409e-16
8.775009959604363e-08	-8.72084e-07	0.05030068	3.90573e-06	-1.2493414e-16
8.800012339521647e-08	-2.5389777e-06	0.050300665	5.7018888e-06	-1.2493409e-16
8.825004848287198e-08	1.02741495e-07	0.050300673	7.0433184e-06	-1.2493409e-16
8.850005061884807e-08	3.3532633e-06	0.050300684	5.4368106e-06	-1.2493402e-16
8.875003026519605e-08	2.5495594e-06	0.05030068	2.5944275e-06	-1.2493409e-16
8.900009757438355e-08	-8.5399296e-07	0.05030066	1.8957528e-06	-1.2493408e-16
8.925013812904235e-08	-1.7216169e-06	0.050300665	3.3770907e-06	-1.2493412e-16
8.950014254060998e-08	1.4581606e-06	0.050300673	3.707409e-06	-1.2493405e-16
8.975008746736473e-08	4.0090636e-06	0.05030067	1.1558966e-06	-1.2493414e-16
9.000000633800318e-08	2.1743488e-06	0.05030067	-1.7719377e-06	-1.2493416e-16
9.025001302592524e-08	-1.2049998e-06	0.050300676	-2.0655718e-06	-1.2493414e-16
9.050004471041155e-08	-1.2256596e-06	0.05030069	-6.282871e-07	-1.2493414e-16
9.075015295737071e-08	2.1997598e-06	0.050300684	-9.1980803e-07	-1.2493416e-16
9.10000520537412e-08	3.8337757e-06	0.0503007	-3.7705897e-06	-1.2493417e-16
9.12500619180838e-08	1.1008027e-06	0.05030069	-6.0972843e-06	-1.2493421e-16
9.150002620419356e-08	-2.0059144e-06	0.050300706	-5.490346e-06	-1.249342e-16
9.175016180401505e-08	-1.1529494e-06	0.050300714	-3.7492405e-06	-1.2493422e-16
9.200008815619103e-08	2.2722118e-06	0.05030071	-4.2012603e-06	-1.2493425e-16
9.225014303262976e-08	2.8871505e-06	0.050300717	-6.7244337e-06	-1.2493421e-16
9.250002713920458e-08	-4.7058916e-07	0.05030071	-7.892847e-06	-1.249342e-16
9.275005734222408e-08	-3.0152976e-06	0.050300725	-6.103732e-06	-1.2493416e-16
9.300009314409278e-08	-1.2527946e-06	0.05030072	-3.9301676e-06	-1.2493422e-16
9.325008946121322e-08	1.9805734e-06	0.05030071	-4.308874e-06	-1.2493424e-16
9.350013624444099e-08	1.6114825e-06	0.05030071	-6.162362e-06	-1.249342e-16
9.375010764770854e-08	-2.014562e-06	0.05030072	-6.023212e-06	-1.249342e-16
9.400004712759902e-08	-3.7144077e-06	0.050300702	-3.2140993e-06	-1.249342e-16
9.425007495495968e-08	-1.1182271e-06	0.0503007	-8.629669e-07	-1.2493422e-16
9.450015231732689e-08	1.7612315e-06	0.050300717	-1.2968887e-06	-1.249342e-16
9.475013229083762e-08	5.2197475e-07	0.050300706	-2.5783886e-06	-1.249342e-16
9.500005353566838e-08	-3.0260799e-06	0.050300714	-1.4412944e-06	-1.2493418e-16
9.525000920834929e-08	-3.6759789e-06	0.0503007	1.8208677e-06	-1.2493424e-16
9.55001393187516e-08	-3.949431e-07	0.050300695	3.7632205e-06	-1.2493425e-16
9.575013181941117e-08	1.9508227e-06	0.050300702	2.8676336e-06	-1.2493425e-16
9.600012377900084e-08	-4.1328814e-08	0.050300714	1.7982179e-06	-1.249343e-16
9.62501304960262e-08	-3.2311534e-06	0.050300706	3.3618103e-06	-1.2493432e-16
9.650001165297947e-08	-2.7790695e-06	0.050300695	6.33023e-06	-1.2493429e-16
9.675008433284987e-08	9.077888e-07	0.050300702	7.2327525e-06	-1.2493425e-16
9.700007631444402e-08	2.5185807e-06	0.050300717	5.4822185e-06	-1.2493422e-16