# t (s)	mx ()	my ()	mz ()	E_total (J)
0	0.0022117717	0.049546633	0.0030124795	-1.426201e-16
2.5029915378713455e-10	0.00042608858	0.04933403	0.0024495136	-1.4262e-16
5.002340537533242e-10	-0.0015421966	0.04862395	0.0031252166	-1.4261974e-16
7.501691903797655e-10	-0.0032428948	0.047536522	0.00495229	-1.426194e-16
1.0003018141521718e-09	-0.004357626	0.046320133	0.0059935176	-1.4261903e-16
1.250239820386277e-09	-0.004710237	0.045104165	0.0050371527	-1.426187e-16
1.5003258928863215e-09	-0.004213212	0.044089023	0.0037294435	-1.4261831e-16
