# t (s)	mx ()	my ()	mz ()	E_total (J)
0	7.0637184e-06	0.04957689	-2.1457673e-08	-1.4261114e-16
2.501167281542283e-10	7.2190596e-06	0.04957689	-3.1392276e-06	-1.4261102e-16
5.001946056280302e-10	7.62715e-06	0.049576882	-6.4906476e-06	-1.4261085e-16
7.500568638247035e-10	8.127125e-06	0.049576882	-9.98348e-06	-1.4261066e-16
1.0000646465803855e-09	8.512811e-06	0.049576875	-1.3618172e-05	-1.4261049e-16
1.2500856236112837e-09	8.488945e-06	0.049576875	-1.744181e-05	-1.4261037e-16
1.50030363462558e-09	7.894423e-06	0.049576875	-2.1132231e-05	-1.4261023e-16
1.750271527745153e-09	6.64868e-06	0.049576875	-2.4312734e-05	-1.4261009e-16
2.0002375660186273e-09	4.782363e-06	0.04957689	-2.6867985e-05	-1.4260995e-16
2.250266557983776e-09	2.4184715e-06	0.049576916	-2.852559e-05	-1.426099e-16
2.5001126106939783e-09	-1.5131401e-07	0.0495769	-2.8983355e-05	-1.4260979e-16
2.7501580276272713e-09	-2.651423e-06	0.0495769	-2.8328895e-05	-1.4260975e-16
3.0001809877861983e-09	-4.865796e-06	0.049576897	-2.6722253e-05	-1.4260964e-16
3.2500519363981966e-09	-6.5420263e-06	0.049576875	-2.415806e-05	-1.426096e-16
3.5002397500975108e-09	-7.5965495e-06	0.04957688	-2.0939111e-05	-1.4260955e-16
3.7501793694357365e-09	-8.025971e-06	0.049576882	-1.7516166e-05	-1.4260948e-16
4.0001450775023146e-09	-8.026443e-06	0.04957688	-1.3972521e-05	-1.4260944e-16
4.250185739972337e-09	-7.683171e-06	0.049576875	-1.0421723e-05	-1.4260942e-16
4.500096342499526e-09	-7.329692e-06	0.049576882	-7.1144104e-06	-1.4260939e-16
4.750312658544185e-09	-7.2132907e-06	0.049576893	-3.942698e-06	-1.4260931e-16
5.000016251507641e-09	-7.365605e-06	0.049576897	-6.6936013e-07	-1.4260931e-16
5.250121335826045e-09	-7.763175e-06	0.049576882	2.6834011e-06	-1.4260926e-16
5.500141618220072e-09	-8.365884e-06	0.04957689	6.1924757e-06	-1.4260923e-16
5.750125379948488e-09	-8.971525e-06	0.049576882	1.0078252e-05	-1.4260925e-16
6.000193611515595e-09	-9.183201e-06	0.049576882	1.4158636e-05	-1.4260922e-16
6.2501105997323585e-09	-8.948447e-06	0.049576875	1.8131435e-05	-1.4260918e-16
6.500077213874239e-09	-8.066573e-06	0.049576875	2.192676e-05	-1.4260918e-16
6.750056427338003e-09	-6.4795754e-06	0.04957688	2.5228263e-05	-1.4260914e-16
7.000258017342384e-09	-4.319979e-06	0.049576893	2.75971e-05	-1.4260914e-16
7.2501842159429745e-09	-1.8628987e-06	0.049576916	2.8946548e-05	-1.4260914e-16
7.500174915867715e-09	6.994244e-07	0.049576897	2.9258132e-05	-1.4260913e-16
7.750115612116021e-09	3.1225895e-06	0.049576897	2.8390885e-05	-1.426091e-16
8.000180427428495e-09	5.0892086e-06	0.04957689	2.6506483e-05	-1.426091e-16
8.25015798721995e-09	6.5087365e-06	0.04957688	2.3976565e-05	-1.4260906e-16
8.500055146270825e-09	7.3252427e-06	0.049576864	2.0927042e-05	-1.4260903e-16
8.750263703834307e-09	7.65657e-06	0.049576882	1.7532557e-05	-1.4260907e-16
9.000209544200302e-09	7.5874336e-06	0.04957689	1.4168173e-05	-1.4260907e-16
9.250097153774647e-09	7.422949e-06	0.049576875	1.089558e-05	-1.4260906e-16
9.500015592433009e-09	7.3411397e-06	0.049576893	7.5867774e-06	-1.4260906e-16
9.750229600210658e-09	7.4862114e-06	0.049576893	4.2912366e-06	-1.42609e-16
1.0000196135323977e-08	7.912848e-06	0.049576897	9.644032e-07	-1.42609e-16
1.0250085750396293e-08	8.557654e-06	0.04957688	-2.6980042e-06	-1.4260897e-16
1.050018014542147e-08	9.248407e-06	0.049576893	-6.685853e-06	-1.4260897e-16
1.0750038129887906e-08	9.698111e-06	0.04957689	-1.0837465e-05	-1.4260896e-16
1.1000089709836815e-08	9.785269e-06	0.049576864	-1.5152991e-05	-1.4260893e-16
1.1250266124845068e-08	9.224397e-06	0.04957686	-1.9448995e-05	-1.4260896e-16
1.1500027421154159e-08	8.009679e-06	0.049576875	-2.3249238e-05	-1.4260894e-16
1.1750281719683416e-08	6.1633264e-06	0.04957691	-2.634853e-05	-1.4260893e-16
1.2000104270909616e-08	3.856452e-06	0.049576893	-2.8631985e-05	-1.4260894e-16
1.2250258042420689e-08	1.317733e-06	0.049576897	-2.9780567e-05	-1.426089e-16
1.2500188085370419e-08	-1.1516296e-06	0.04957691	-2.9740333e-05	-1.4260892e-16
1.2750047098088068e-08	-3.3332703e-06	0.0495769	-2.876997e-05	-1.4260888e-16
1.3000292228209988e-08	-5.094182e-06	0.049576893	-2.693087e-05	-1.4260886e-16
1.3250299733342121e-08	-6.259277e-06	0.04957688	-2.4328829e-05	-1.4260889e-16
1.3500153724351146e-08	-6.9493044e-06	0.04957688	-2.1379888e-05	-1.4260888e-16
1.3750094406076644e-08	-7.2407665e-06	0.049576882	-1.8295646e-05	-1.4260886e-16
1.4000217987299004e-08	-7.3038204e-06	0.0495769	-1.5024245e-05	-1.4260881e-16
1.4250230006909167e-08	-7.329532e-06	0.049576882	-1.1744052e-05	-1.4260882e-16
1.4500214913237161e-08	-7.5446583e-06	0.049576893	-8.511693e-06	-1.4260881e-16
1.4750072296422266e-08	-8.004925e-06	0.049576893	-5.073249e-06	-1.426088e-16
1.500007293327901e-08	-8.629639e-06	0.049576893	-1.3318657e-06	-1.426088e-16
1.525003781589155e-08	-9.373441e-06	0.049576882	2.6157497e-06	-1.4260878e-16
1.5500235880369688e-08	-1.00271045e-05	0.04957689	6.899834e-06	-1.4260878e-16
1.575006973390962e-08	-1.0352612e-05	0.04957688	1.1498034e-05	-1.426087e-16
1.6000246359573695e-08	-1.0119723e-05	0.049576864	1.6039909e-05	-1.4260872e-16
1.625016033032437e-08	-9.3024955e-06	0.04957686	2.0302235e-05	-1.4260874e-16
1.6500249454037746e-08	-7.787949e-06	0.049576882	2.4156869e-05	-1.4260874e-16
1.6750279954475927e-08	-5.7048305e-06	0.049576893	2.7192831e-05	-1.4260872e-16
1.7000153007869915e-08	-3.369396e-06	0.04957689	2.9149502e-05	-1.4260869e-16
1.725020559693021e-08	-9.464868e-07	0.04957691	3.012836e-05	-1.4260869e-16
1.750000212747546e-08	1.4055107e-06	0.049576916	3.0061603e-05	-1.4260864e-16
1.7750317787798162e-08	3.402749e-06	0.0495769	2.8937757e-05	-1.4260862e-16
1.8000243944223943e-08	4.880894e-06	0.04957689	2.7095377e-05	-1.4260864e-16
1.8250225447372588e-08	5.947202e-06	0.049576882	2.4747551e-05	-1.4260861e-16
1.850000760032816e-08	6.58116e-06	0.04957688	2.1933913e-05	-1.4260858e-16
1.875029264472998e-08	6.921153e-06	0.049576875	1.8897503e-05	-1.4260853e-16
1.9000098466042646e-08	7.1915924e-06	0.049576897	1.5836358e-05	-1.4260854e-16
1.9250210398699174e-08	7.529907e-06	0.049576882	1.2584329e-05	-1.4260856e-16
1.9500214001588655e-08	8.001855e-06	0.049576882	9.100139e-06	-1.4260852e-16
1.975022517225936e-08	8.656714e-06	0.0495769	5.4639577e-06	-1.4260848e-16
2.0000016363028612e-08	9.4776115e-06	0.04957691	1.476258e-06	-1.4260849e-16
2.0250038901146377e-08	1.0245146e-05	0.04957688	-2.9437244e-06	-1.4260853e-16
2.050021616215646e-08	1.07387605e-05	0.049576882	-7.5796247e-06	-1.4260845e-16
2.075010720282263e-08	1.0790324e-05	0.049576893	-1.2312383e-05	-1.4260849e-16
2.1000275733603937e-08	1.0309087e-05	0.049576867	-1.706019e-05	-1.426084e-16
2.125014838212183e-08	9.1811135e-06	0.049576867	-2.1407306e-05	-1.4260843e-16
2.1500192112679568e-08	7.457572e-06	0.04957688	-2.5039017e-05	-1.4260844e-16
2.175029200181556e-08	5.3457125e-06	0.049576893	-2.7895272e-05	-1.4260841e-16
2.200005142670765e-08	3.0007975e-06	0.049576893	-2.9796063e-05	-1.4260845e-16
2.225006946641756e-08	6.7192593e-07	0.049576912	-3.0547082e-05	-1.4260844e-16
2.250008843377261e-08	-1.3924823e-06	0.049576916	-3.0356943e-05	-1.4260843e-16
2.275005235739575e-08	-3.1517056e-06	0.049576893	-2.9395818e-05	-1.4260841e-16
2.3000092455474246e-08	-4.5473525e-06	0.049576882	-2.7653576e-05	-1.4260837e-16
2.3250318067503803e-08	-5.5221644e-06	0.049576893	-2.5363863e-05	-1.426084e-16
2.3500123441162716e-08	-6.201456e-06	0.049576882	-2.2821874e-05	-1.4260839e-16
2.375006007449987e-08	-6.744823e-06	0.049576875	-1.9950568e-05	-1.4260837e-16
2.400016943798121e-08	-7.2623725e-06	0.049576882	-1.6778708e-05	-1.4260835e-16
2.425018560149408e-08	-7.892355e-06	0.04957689	-1.3457238e-05	-1.4260836e-16
2.450029202914732e-08	-8.654822e-06	0.04957689	-9.833872e-06	-1.4260839e-16
2.4750230821204756e-08	-9.456658e-06	0.04957689	-5.759746e-06	-1.4260833e-16
2.500030978420047e-08	-1.0272363e-05	0.049576893	-1.3843179e-06	-1.4260833e-16
2.5250062817409248e-08	-1.09569755e-05	0.049576875	3.271103e-06	-1.426084e-16
2.550013727467205e-08	-1.1255967e-05	0.04957688	8.2519655e-06	-1.4260832e-16
2.5750263840649035e-08	-1.1013734e-05	0.049576893	1.32411715e-05	-1.4260833e-16
2.6000229797727935e-08	-1.0253308e-05	0.049576875	1.7909706e-05	-1.426083e-16
2.6250062347159057e-08	-8.910362e-06	0.049576864	2.2170543e-05	-1.4260828e-16
2.6500232672830725e-08	-7.086022e-06	0.04957688	2.5789737e-05	-1.4260827e-16
2.6750163887846122e-08	-4.9788528e-06	0.049576912	2.842903e-05	-1.4260825e-16
2.7000136114808193e-08	-2.7855183e-06	0.049576893	3.0113459e-05	-1.4260827e-16
2.7250253800181147e-08	-6.5739937e-07	0.04957691	3.0935556e-05	-1.4260823e-16
2.7500135009131903e-08	1.2415252e-06	0.049576912	3.0800104e-05	-1.4260824e-16
2.775012589624648e-08	2.7804501e-06	0.049576897	2.9845536e-05	-1.4260823e-16
2.8000217601859964e-08	4.090635e-06	0.0495769	2.8357805e-05	-1.4260816e-16
2.8250289289989456e-08	5.1584957e-06	0.04957689	2.633214e-05	-1.4260821e-16
2.8500140773594296e-08	6.037367e-06	0.049576882	2.379313e-05	-1.426082e-16
2.8750102124598413e-08	6.785267e-06	0.049576867	2.0979644e-05	-1.4260813e-16
2.900025564817906e-08	7.622079e-06	0.049576897	1.7848313e-05	-1.4260815e-16
2.9250073361726288e-08	8.538607e-06	0.049576882	1.4213771e-05	-1.4260816e-16
2.9500023895426696e-08	9.417982e-06	0.04957688	1.0221898e-05	-1.4260811e-16
2.9750068170384992e-08	1.03262255e-05	0.0495769	5.9348345e-06	-1.4260808e-16
3.000020386053877e-08	1.1102958e-05	0.04957689	1.1509657e-06	-1.426081e-16
3.0250146136873586e-08	1.1543469e-05	0.049576875	-3.9222837e-06	-1.4260811e-16
3.050017444064755e-08	1.1543373e-05	0.049576867	-8.984953e-06	-1.4260808e-16
3.0750024926010824e-08	1.11387435e-05	0.0495769	-1.4009774e-05	-1.4260808e-16
3.10002219692599e-08	1.0107169e-05	0.049576875	-1.8797218e-05	-1.4260807e-16
3.125023177444171e-08	8.609069e-06	0.049576864	-2.290815e-05	-1.4260806e-16
3.15000894815762e-08	6.8221148e-06	0.04957689	-2.6280284e-05	-1.4260806e-16
3.175022729863268e-08	4.814173e-06	0.04957691	-2.8933882e-05	-1.4260803e-16
3.20002286840122e-08	2.7637534e-06	0.049576893	-3.0598938e-05	-1.4260804e-16
3.225022009109394e-08	8.579341e-07	0.0495769	-3.1319858e-05	-1.4260804e-16
3.250020704982864e-08	-8.1093515e-07	0.049576923	-3.136307e-05	-1.4260804e-16
3.275014055019009e-08	-2.3557006e-06	0.0495769	-3.0693114e-05	-1.4260803e-16
3.300012545836574e-08	-3.651189e-06	0.04957689	-2.928704e-05	-1.4260803e-16
3.325007971480801e-08	-4.850951e-06	0.0495769	-2.7399063e-05	-1.4260807e-16
3.350026308715452e-08	-5.9379504e-06	0.049576882	-2.50718e-05	-1.4260807e-16
3.3750189083779114e-08	-7.0480064e-06	0.04957688	-2.2142529e-05	-1.4260798e-16
3.400021732845905e-08	-8.154977e-06	0.04957689	-1.8746852e-05	-1.42608e-16
3.425016083854448e-08	-9.226211e-06	0.049576882	-1.49586795e-05	-1.4260804e-16
3.4500107808192776e-08	-1.0277619e-05	0.049576893	-1.0620058e-05	-1.42608e-16
3.4750034809716104e-08	-1.11105965e-05	0.049576882	-5.812943e-06	-1.4260799e-16
3.5000003302814484e-08	-1.17110185e-05	0.049576893	-7.987022e-07	-1.4260799e-16
3.525019185984462e-08	-1.1923551e-05	0.04957686	4.4295193e-06	-1.4260803e-16
3.550016642846478e-08	-1.17198915e-05	0.049576875	9.762943e-06	-1.4260802e-16
3.575028993874092e-08	-1.0962324e-05	0.0495769	1.4783889e-05	-1.42608e-16
3.600000267695249e-08	-9.8307155e-06	0.049576856	1.9335152e-05	-1.4260798e-16
3.625012340891525e-08	-8.33762e-06	0.049576864	2.34285e-05	-1.4260799e-16
3.6500069900581445e-08	-6.5921095e-06	0.049576893	2.6783646e-05	-1.42608e-16
3.675003466657342e-08	-4.783861e-06	0.04957691	2.9225648e-05	-1.4260796e-16
3.700024168592193e-08	-2.9571058e-06	0.049576875	3.0958654e-05	-1.4260796e-16
3.725010131055752e-08	-1.2397825e-06	0.049576912	3.1944364e-05	-1.4260799e-16
3.750020566746628e-08	3.8031953e-07	0.049576927	3.207445e-05	-1.4260798e-16
3.77502478121027e-08	1.8309418e-06	0.049576882	3.1567513e-05	-1.4260798e-16
3.800005771331323e-08	3.3298495e-06	0.049576893	3.0506253e-05	-1.4260796e-16
3.825026770052823e-08	4.7461217e-06	0.049576893	2.8687566e-05	-1.4260795e-16
3.850026304400662e-08	6.144128e-06	0.049576893	2.6226491e-05	-1.4260798e-16
3.875019574946348e-08	7.5242992e-06	0.049576867	2.3277104e-05	-1.4260796e-16
3.9000137414651605e-08	8.875616e-06	0.04957689	1.9651652e-05	-1.4260796e-16
3.925012293149715e-08	1.0108874e-05	0.049576893	1.536876e-05	-1.4260796e-16
3.950022816912209e-08	1.1090662e-05	0.049576875	1.0704398e-05	-1.4260794e-16
3.9750258472659596e-08	1.188026e-05	0.049576893	5.661547e-06	-1.4260794e-16
4.000019130011794e-08	1.2201271e-05	0.049576875	2.4735928e-07	-1.4260794e-16
4.0250301503800645e-08	1.214632e-05	0.049576875	-5.1629545e-06	-1.4260792e-16
4.0500243961209845e-08	1.1665197e-05	0.04957688	-1.0375678e-05	-1.4260794e-16
4.075005164112999e-08	1.0823526e-05	0.049576882	-1.5411228e-05	-1.4260791e-16
4.100005343934204e-08	9.573463e-06	0.049576864	-1.996696e-05	-1.4260792e-16
4.125010165066817e-08	8.141778e-06	0.049576864	-2.3827852e-05	-1.4260791e-16
4.1500204336583484e-08	6.633824e-06	0.04957691	-2.7107e-05	-1.4260792e-16
4.175009427516559e-08	4.985259e-06	0.049576893	-2.9751063e-05	-1.4260791e-16
4.200018963927456e-08	3.3814213e-06	0.049576882	-3.1531752e-05	-1.4260786e-16
4.225001759408344e-08	1.796769e-06	0.049576916	-3.2634736e-05	-1.4260791e-16
4.250006007331796e-08	2.3654488e-07	0.049576923	-3.3162534e-05	-1.426079e-16
4.275008388456776e-08	-1.4373762e-06	0.04957689	-3.2883883e-05	-1.426079e-16
4.3000006891854235e-08	-3.0556728e-06	0.04957689	-3.1828582e-05	-1.4260787e-16
4.325001822382439e-08	-4.7819312e-06	0.049576912	-3.0133426e-05	-1.4260788e-16
4.3500206268291696e-08	-6.5457175e-06	0.04957688	-2.7654021e-05	-1.426079e-16
4.375002059346149e-08	-8.217836e-06	0.049576875	-2.4310202e-05	-1.4260784e-16
4.400027395529043e-08	-9.720918e-06	0.049576897	-2.0358711e-05	-1.4260788e-16
4.4250047294910853e-08	-1.0963029e-05	0.049576882	-1.5825928e-05	-1.4260786e-16
4.4500050099942586e-08	-1.1927343e-05	0.04957688	-1.0674149e-05	-1.4260786e-16
4.4750158548710886e-08	-1.2385817e-05	0.04957689	-5.2523615e-06	-1.4260782e-16
4.500027321013787e-08	-1.2506512e-05	0.049576882	2.002716e-07	-1.4260783e-16
4.5250209482429225e-08	-1.2182943e-05	0.049576867	5.709231e-06	-1.4260784e-16
4.550014975420312e-08	-1.1525135e-05	0.049576882	1.1040271e-05	-1.426078e-16
4.575008767075261e-08	-1.0546804e-05	0.04957689	1.5856474e-05	-1.4260782e-16
4.6000170919553535e-08	-9.4249945e-06	0.049576864	2.0269454e-05	-1.426078e-16
4.625000641698676e-08	-8.183935e-06	0.049576893	2.4249255e-05	-1.4260778e-16
4.6500241219696286e-08	-6.782379e-06	0.049576882	2.7536005e-05	-1.4260775e-16
4.675003011591437e-08	-5.4118173e-06	0.049576893	3.0185132e-05	-1.4260776e-16
4.700009305453186e-08	-3.959033e-06	0.049576893	3.2338052e-05	-1.4260774e-16
4.725014579518059e-08	-2.4375304e-06	0.049576923	3.3768712e-05	-1.4260778e-16
4.750012236241927e-08	-7.3761186e-07	0.049576923	3.439352e-05	-1.4260774e-16
4.7750141986222466e-08	1.0641752e-06	0.049576893	3.4381002e-05	-1.4260771e-16
4.800023471478366e-08	3.0888896e-06	0.0495769	3.3524037e-05	-1.4260772e-16
4.825007868438298e-08	5.139369e-06	0.049576897	3.162578e-05	-1.4260771e-16
4.8500290500848296e-08	7.1370528e-06	0.049576882	2.8904677e-05	-1.4260772e-16
4.875014097624505e-08	9.035701e-06	0.04957688	2.5407226e-05	-1.4260772e-16
4.900022399337102e-08	1.0619306e-05	0.049576897	2.0998716e-05	-1.4260768e-16
4.9250296886785986e-08	1.1805929e-05	0.049576882	1.5977024e-05	-1.4260767e-16
4.950014632964622e-08	1.2510292e-05	0.049576864	1.0659993e-05	-1.4260767e-16
4.975014689762907e-08	1.2813548e-05	0.0495769	5.029142e-06	-1.4260768e-16
5.0000190086681115e-08	1.2621982e-05	0.049576875	-6.818771e-07	-1.4260766e-16
5.025028432323037e-08	1.2146775e-05	0.049576864	-6.1142446e-06	-1.4260766e-16
5.050014761498405e-08	1.1376305e-05	0.049576882	-1.1290312e-05	-1.4260764e-16
5.07501214123523e-08	1.0429394e-05	0.049576882	-1.6196966e-05	-1.4260766e-16
5.1000121444053246e-08	9.415375e-06	0.049576875	-2.0570307e-05	-1.4260762e-16
5.125027688415554e-08	8.363137e-06	0.04957688	-2.4442821e-05	-1.426076e-16
5.150025122005865e-08	7.2794355e-06	0.049576897	-2.7968288e-05	-1.4260762e-16
5.175015374576194e-08	6.0213733e-06	0.04957689	-3.094733e-05	-1.4260763e-16
5.2000294862823643e-08	4.6624427e-06	0.049576893	-3.322959e-05	-1.4260763e-16
5.225023011552148e-08	3.063078e-06	0.049576923	-3.496468e-05	-1.4260766e-16
5.2500128261418344e-08	1.2089519e-06	0.049576912	-3.5985708e-05	-1.4260763e-16
5.275013006354899e-08	-9.393098e-07	0.0495769	-3.5985708e-05	-1.4260757e-16
5.300001089797838e-08	-3.218815e-06	0.049576893	-3.5043955e-05	-1.4260762e-16
5.325025466482899e-08	-5.5849446e-06	0.049576897	-3.3172964e-05	-1.4260759e-16
5.3500283218857184e-08	-7.875773e-06	0.04957688	-3.0149817e-05	-1.4260759e-16
5.375017363207922e-08	-9.83279e-06	0.04957688	-2.6152284e-05	-1.426076e-16
5.4000067073450567e-08	-1.1407757e-05	0.049576897	-2.1514892e-05	-1.4260759e-16
5.4250248060517565e-08	-1.24874e-05	0.049576867	-1.620978e-05	-1.4260759e-16
5.450015530508126e-08	-1.3002847e-05	0.049576882	-1.0459125e-05	-1.4260755e-16
5.475022876913567e-08	-1.296899e-05	0.049576882	-4.737973e-06	-1.4260757e-16
5.5000251002156764e-08	-1.2647332e-05	0.049576882	8.8959933e-07	-1.4260759e-16
5.52500690681463e-08	-1.2013721e-05	0.049576875	6.44207e-06	-1.4260751e-16
5.550012647188389e-08	-1.1202987e-05	0.04957688	1.1596978e-05	-1.4260758e-16
5.575015037327655e-08	-1.0402685e-05	0.04957689	1.6292333e-05	-1.4260757e-16
5.600010097239976e-08	-9.618904e-06	0.049576867	2.0789206e-05	-1.4260758e-16
5.6250007337628454e-08	-8.775798e-06	0.04957689	2.490893e-05	-1.4260758e-16
5.650006483122768e-08	-7.828382e-06	0.049576882	2.8506816e-05	-1.4260757e-16
5.675025769418897e-08	-6.7501933e-06	0.049576875	3.1763317e-05	-1.4260758e-16
5.700010929279359e-08	-5.328206e-06	0.0495769	3.4524648e-05	-1.4260755e-16
5.7250056694473166e-08	-3.5860803e-06	0.049576927	3.644645e-05	-1.4260758e-16
5.75000936729287e-08	-1.4830398e-06	0.049576912	3.755465e-05	-1.4260759e-16
5.7750203844936375e-08	9.568903e-07	0.049576893	3.777221e-05	-1.4260751e-16
5.800025636446608e-08	3.6042213e-06	0.049576923	3.673658e-05	-1.4260758e-16
5.8250064642452305e-08	6.2389277e-06	0.0495769	3.4481585e-05	-1.4260754e-16
5.850005947467719e-08	8.646555e-06	0.049576864	3.1252206e-05	-1.4260755e-16
5.875000944949179e-08	1.0697716e-05	0.049576882	2.6990176e-05	-1.4260755e-16
5.90002191848422e-08	1.220332e-05	0.049576875	2.1825434e-05	-1.4260757e-16
5.9250281774688947e-08	1.3051743e-05	0.049576882	1.62448e-05	-1.4260757e-16
5.950001878241589e-08	1.330975e-05	0.049576867	1.0456741e-05	-1.4260753e-16
5.975007214061571e-08	1.3135444e-05	0.049576875	4.5073034e-06	-1.4260757e-16
6.000021356225634e-08	1.2620963e-05	0.049576875	-1.2180209e-06	-1.4260758e-16
6.025002433270068e-08	1.19450015e-05	0.049576864	-6.5585973e-06	-1.4260751e-16
6.050024115741115e-08	1.1247133e-05	0.049576893	-1.1740476e-05	-1.4260759e-16
6.075029065503519e-08	1.0582673e-05	0.049576875	-1.6622245e-05	-1.4260759e-16
6.100022921692101e-08	9.980198e-06	0.04957688	-2.1092594e-05	-1.4260754e-16
6.125022843592413e-08	9.382296e-06	0.049576882	-2.5366544e-05	-1.4260757e-16
6.150011826549788e-08	8.598604e-06	0.049576893	-2.9444695e-05	-1.4260757e-16
6.175005831649898e-08	7.5041776e-06	0.049576882	-3.2961965e-05	-1.4260759e-16
6.200000398899343e-08	6.0263537e-06	0.049576897	-3.5907626e-05	-1.4260759e-16
6.22501426740725e-08	4.0694927e-06	0.049576923	-3.8241746e-05	-1.4260758e-16
6.250018077092701e-08	1.6432396e-06	0.049576893	-3.9505958e-05	-1.4260751e-16
6.275010953998752e-08	-1.1286896e-06	0.049576923	-3.9541723e-05	-1.4260754e-16
6.300012640059873e-08	-4.082116e-06	0.049576923	-3.844589e-05	-1.4260758e-16
6.325000380802659e-08	-6.941023e-06	0.049576893	-3.6038757e-05	-1.4260755e-16
6.350020153600878e-08	-9.445668e-06	0.049576864	-3.2311975e-05	-1.4260751e-16
6.375015496650051e-08	-1.1445596e-05	0.04957688	-2.7686507e-05	-1.4260758e-16
6.400022298131771e-08	-1.2817577e-05	0.049576893	-2.2363813e-05	-1.4260757e-16
6.425015567493256e-08	-1.3509246e-05	0.049576856	-1.6441494e-05	-1.4260753e-16
6.450005360064816e-08	-1.3546385e-05	0.049576875	-1.0402203e-05	-1.4260753e-16
6.475003700475194e-08	-1.3187776e-05	0.04957688	-4.56363e-06	-1.4260755e-16
6.500026861595142e-08	-1.26098785e-05	0.04957688	1.1879206e-06	-1.4260751e-16
6.525017430892311e-08	-1.1953192e-05	0.049576875	6.6934526e-06	-1.4260753e-16
6.550023431456182e-08	-1.13755605e-05	0.049576882	1.1782944e-05	-1.4260753e-16
6.575029581539288e-08	-1.0934936e-05	0.04957689	1.6702115e-05	-1.4260755e-16
6.600014206460799e-08	-1.0549119e-05	0.049576864	2.154544e-05	-1.4260751e-16
6.625010866658701e-08	-1.0069651e-05	0.0495769	2.6085972e-05	-1.4260754e-16
6.65002868803455e-08	-9.4082825e-06	0.049576897	3.0354113e-05	-1.426075e-16
6.675020954571342e-08	-8.2749075e-06	0.049576867	3.4359247e-05	-1.4260755e-16
6.700028143042104e-08	-6.5848762e-06	0.0495769	3.7677586e-05	-1.4260754e-16
6.725028410872614e-08	-4.3494288e-06	0.04957691	4.003033e-05	-1.4260755e-16
6.750022269855862e-08	-1.6370518e-06	0.049576912	4.1425526e-05	-1.4260753e-16
6.775022438697046e-08	1.4630783e-06	0.049576912	4.153207e-05	-1.4260753e-16
6.800009357768941e-08	4.6549276e-06	0.049576923	4.0089933e-05	-1.4260758e-16
6.825025169790056e-08	7.631312e-06	0.049576893	3.7359296e-05	-1.4260753e-16
6.850021323875956e-08	1.0206394e-05	0.049576875	3.3490956e-05	-1.4260753e-16
6.875003104075069e-08	1.2136006e-05	0.049576893	2.8478504e-05	-1.4260747e-16
6.900009487251346e-08	1.3355512e-05	0.049576867	2.2774488e-05	-1.4260751e-16
6.925014795105208e-08	1.3811153e-05	0.04957686	1.6821474e-05	-1.4260743e-16
6.950013179864962e-08	1.374677e-05	0.049576867	1.07005235e-05	-1.4260746e-16
6.975023810528408e-08	1.3275519e-05	0.049576882	4.632026e-06	-1.4260749e-16
7.000012271791103e-08	1.2660094e-05	0.049576882	-1.0427833e-06	-1.4260745e-16
7.025004851089867e-08	1.2107511e-05	0.049576856	-6.4735113e-06	-1.4260746e-16
7.050002115098898e-08	1.1708946e-05	0.049576893	-1.1832118e-05	-1.4260747e-16
7.075008725726e-08	1.1467084e-05	0.049576864	-1.6932487e-05	-1.4260745e-16
7.100030202952098e-08	1.1236165e-05	0.04957689	-2.1881759e-05	-1.4260745e-16
7.125011834708404e-08	1.0927606e-05	0.04957689	-2.6857704e-05	-1.4260741e-16
7.15000452830612e-08	1.0189828e-05	0.04957689	-3.1578093e-05	-1.4260742e-16
7.175019514352883e-08	8.950941e-06	0.04957689	-3.5740137e-05	-1.4260741e-16
7.200017984866864e-08	7.061872e-06	0.049576882	-3.9328635e-05	-1.4260745e-16
7.22501290758209e-08	4.5506763e-06	0.049576927	-4.1993855e-05	-1.4260742e-16
7.250008227934944e-08	1.5006802e-06	0.049576897	-4.3250322e-05	-1.4260738e-16
7.275014833612347e-08	-1.8513051e-06	0.049576916	-4.316032e-05	-1.4260741e-16
7.300008184147582e-08	-5.2112077e-06	0.049576927	-4.1677056e-05	-1.426074e-16
7.325022841402177e-08	-8.319498e-06	0.0495769	-3.8620234e-05	-1.4260737e-16
7.350022723988233e-08	-1.0835291e-05	0.04957689	-3.430128e-05	-1.4260737e-16
7.375015434981682e-08	-1.2715477e-05	0.049576864	-2.9158742e-05	-1.4260741e-16
7.400007114733987e-08	-1.3759034e-05	0.04957688	-2.3275614e-05	-1.4260734e-16
7.425022112027795e-08	-1.4115914e-05	0.049576845	-1.6976297e-05	-1.4260733e-16
7.450022398102173e-08	-1.39085205e-05	0.049576875	-1.0814965e-05	-1.4260731e-16
7.47500249458043e-08	-1.343885e-05	0.049576882	-4.8100947e-06	-1.4260733e-16
7.500023759497895e-08	-1.2867004e-05	0.04957686	1.1049211e-06	-1.4260731e-16
7.525017056916262e-08	-1.2424782e-05	0.049576867	6.6959856e-06	-1.4260731e-16
7.55001851324241e-08	-1.2220078e-05	0.049576875	1.2069642e-05	-1.4260729e-16
7.575024397078513e-08	-1.2095276e-05	0.049576882	1.7515718e-05	-1.4260729e-16
7.600026310476647e-08	-1.2047519e-05	0.04957688	2.2910237e-05	-1.426073e-16
7.625027537838923e-08	-1.1727169e-05	0.049576882	2.81021e-05	-1.4260727e-16
7.650023858002485e-08	-1.0978745e-05	0.0495769	3.317103e-05	-1.4260726e-16
7.675022781475481e-08	-9.526441e-06	0.049576882	3.7794263e-05	-1.4260726e-16
7.700024072497816e-08	-7.411315e-06	0.0495769	4.150644e-05	-1.426073e-16
7.725029011266012e-08	-4.619489e-06	0.0495769	4.4157507e-05	-1.4260727e-16
7.750024020786553e-08	-1.302672e-06	0.04957691	4.558012e-05	-1.4260727e-16
7.775010874234047e-08	2.249903e-06	0.049576916	4.5342742e-05	-1.426073e-16
7.800018826338782e-08	5.7651887e-06	0.049576916	4.3491124e-05	-1.4260727e-16
7.82501875807729e-08	8.873508e-06	0.049576912	4.0316732e-05	-1.4260723e-16
7.850013606573719e-08	1.1446407e-05	0.049576856	3.5829245e-05	-1.4260722e-16
7.875006575432487e-08	1.317427e-05	0.049576893	3.0276477e-05	-1.4260725e-16
7.9000302414005e-08	1.4156222e-05	0.049576875	2.4237484e-05	-1.4260723e-16
7.925001311148908e-08	1.4416732e-05	0.049576845	1.7958284e-05	-1.426072e-16
7.950013045136508e-08	1.42119e-05	0.04957688	1.1525154e-05	-1.4260721e-16
7.975009605789191e-08	1.3717427e-05	0.049576882	5.348176e-06	-1.4260721e-16
8.000007743954515e-08	1.3257214e-05	0.049576882	-5.322695e-07	-1.4260725e-16
8.025004331720061e-08	1.2978125e-05	0.04957686	-6.3848497e-06	-1.4260721e-16
8.050013997217411e-08	1.2830828e-05	0.049576897	-1.2142211e-05	-1.4260718e-16
8.075026648181181e-08	1.29073e-05	0.049576875	-1.7741024e-05	-1.4260718e-16
8.100014645406352e-08	1.285972e-05	0.04957686	-2.3462475e-05	-1.4260722e-16
8.125023736272705e-08	1.2541879e-05	0.049576897	-2.9178262e-05	-1.4260725e-16
8.15002099127333e-08	1.1629043e-05	0.04957688	-3.4478606e-05	-1.426072e-16
8.175002210011973e-08	1.0059386e-05	0.0495769	-3.927231e-05	-1.426072e-16
8.200017973951418e-08	7.684518e-06	0.049576897	-4.329741e-05	-1.4260722e-16
8.225025413266523e-08	4.6381665e-06	0.049576927	-4.6016576e-05	-1.4260718e-16
8.250017619243271e-08	1.1309105e-06	0.04957691	-4.7221183e-05	-1.426072e-16
8.275023152067176e-08	-2.6206233e-06	0.049576912	-4.696697e-05	-1.426072e-16
8.300016240387635e-08	-6.173733e-06	0.049576934	-4.502565e-05	-1.4260727e-16
8.325002211222714e-08	-9.356765e-06	0.049576897	-4.1488707e-05	-1.4260726e-16
8.35001945344346e-08	-1.1852685e-05	0.049576882	-3.6806763e-05	-1.426072e-16
8.37502559015012e-08	-1.3612153e-05	0.049576875	-3.1211675e-05	-1.426072e-16
8.400007753832059e-08	-1.4519756e-05	0.049576875	-2.4880916e-05	-1.4260723e-16
8.425017813338307e-08	-1.4795512e-05	0.049576845	-1.833722e-05	-1.4260722e-16
8.45000361071613e-08	-1.4591793e-05	0.049576856	-1.1922717e-05	-1.4260723e-16
8.4750229749272e-08	-1.4191279e-05	0.049576893	-5.494803e-06	-1.4260725e-16
8.50001653165489e-08	-1.3824128e-05	0.049576856	7.601082e-07	-1.4260726e-16
8.525013558461483e-08	-1.35922155e-05	0.049576864	6.7430733e-06	-1.4260725e-16
8.550015954688566e-08	-1.3598865e-05	0.049576893	1.2757331e-05	-1.4260723e-16
8.575014823466062e-08	-1.3639057e-05	0.049576875	1.8883497e-05	-1.4260723e-16
8.600020432127781e-08	-1.3657872e-05	0.049576856	2.488941e-05	-1.4260726e-16
8.625024860646821e-08	-1.323391e-05	0.04957688	3.079802e-05	-1.426073e-16
8.650000139829103e-08	-1.2210058e-05	0.0495769	3.6545694e-05	-1.4260729e-16
8.675014112566224e-08	-1.0417592e-05	0.04957688	4.157603e-05	-1.4260727e-16
8.700013895157457e-08	-7.8876e-06	0.049576893	4.55606e-05	-1.426073e-16
8.72500857471312e-08	-4.661e-06	0.049576942	4.84173e-05	-1.426073e-16
8.750017892676395e-08	-9.490622e-07	0.049576912	4.971832e-05	-1.4260731e-16
8.775020553330558e-08	2.8404518e-06	0.04957693	4.9211532e-05	-1.426073e-16
8.800010433601891e-08	6.5328727e-06	0.049576916	4.714504e-05	-1.4260733e-16
8.825005651417377e-08	9.745676e-06	0.049576912	4.3614953e-05	-1.4260734e-16
8.85000711143341e-08	1.2308575e-05	0.049576864	3.8642287e-05	-1.4260727e-16
8.8750042579266e-08	1.4056179e-05	0.049576867	3.2753498e-05	-1.4260727e-16
8.900019584422134e-08	1.5075243e-05	0.049576875	2.6373566e-05	-1.4260729e-16
8.925029910789684e-08	1.5369575e-05	0.049576826	1.9586087e-05	-1.4260734e-16
8.950009455575705e-08	1.51970435e-05	0.049576864	1.274556e-05	-1.4260731e-16
8.975007924611315e-08	1.4880698e-05	0.049576867	6.1672927e-06	-1.4260733e-16
9.000000848315644e-08	1.4579876e-05	0.04957688	-3.376603e-07	-1.4260734e-16
9.0250054592761e-08	1.4401057e-05	0.049576875	-6.836951e-06	-1.4260734e-16
9.050011621941551e-08	1.4371294e-05	0.04957689	-1.3161451e-05	-1.4260731e-16
9.075014884582895e-08	1.447957e-05	0.049576882	-1.9477755e-05	-1.4260731e-16
9.100026122697209e-08	1.4364744e-05	0.04957685	-2.5949032e-05	-1.4260731e-16
9.12502986398524e-08	1.3868818e-05	0.0495769	-3.2232405e-05	-1.4260733e-16
9.150019522115482e-08	1.2740174e-05	0.04957689	-3.8053393e-05	-1.4260737e-16
9.175009664035557e-08	1.08427275e-05	0.049576882	-4.3338237e-05	-1.4260735e-16
9.200005170811898e-08	8.138047e-06	0.049576893	-4.7602953e-05	-1.4260734e-16
9.225018050128847e-08	4.7909025e-06	0.049576942	-5.0396324e-05	-1.4260737e-16
9.250014557500646e-08	1.026766e-06	0.04957693	-5.16814e-05	-1.4260734e-16
9.275000237502013e-08	-2.9494213e-06	0.049576897	-5.134374e-05	-1.4260735e-16
9.300013957697604e-08	-6.705295e-06	0.049576946	-4.912913e-05	-1.4260735e-16
9.325016405342694e-08	-1.0028632e-05	0.04957691	-4.5363307e-05	-1.4260734e-16
9.350021788380138e-08	-1.2685549e-05	0.049576867	-4.0404797e-05	-1.4260731e-16
9.37501883799503e-08	-1.4585143e-05	0.049576867	-3.4326615e-05	-1.4260734e-16
9.40000663819111e-08	-1.5665539e-05	0.049576856	-2.7528704e-05	-1.4260733e-16
9.425030715907136e-08	-1.6077645e-05	0.049576834	-2.0526946e-05	-1.4260729e-16
9.450003941538328e-08	-1.602556e-05	0.049576845	-1.3459325e-05	-1.4260731e-16
9.475005148926223e-08	-1.5730166e-05	0.049576875	-6.3303114e-06	-1.4260731e-16
9.5000175210486e-08	-1.5431819e-05	0.049576867	5.531311e-07	-1.4260733e-16
9.525016627443882e-08	-1.5226454e-05	0.04957686	7.2535872e-06	-1.4260729e-16
9.550015294056257e-08	-1.5160081e-05	0.049576897	1.4050007e-05	-1.4260723e-16
9.575023466893871e-08	-1.5126062e-05	0.049576867	2.0791442e-05	-1.4260726e-16
9.600019939216927e-08	-1.4977861e-05	0.049576867	2.7382075e-05	-1.4260731e-16
9.625011109976047e-08	-1.4387716e-05	0.049576875	3.393501e-05	-1.4260727e-16
9.650003469132231e-08	-1.3161625e-05	0.04957689	4.0131956e-05	-1.4260729e-16
9.675007567813495e-08	-1.1184176e-05	0.049576882	4.5462697e-05	-1.426073e-16
9.700024090466387e-08	-8.421304e-06	0.049576882	4.9800576e-05	-1.4260727e-16