//mumax 3.10 [linux_amd64 go1.17.3(gc) CUDA-11.5]
//GPU info: NVIDIA GeForce RTX 3060 Laptop GPU(6143MB), CUDA Driver 12.0, cc=8.6, using cc=75 PTX
//(c) Arne Vansteenkiste, Dynamat LAB, Ghent University, Belgium
//This is free software without any warranty. See license.txt
//********************************************************************//
//  If you use mumax in any work or publication,                      //
//  we kindly ask you to cite the references in references.bib        //
//********************************************************************//
//output directory: vcma_dw.out/
fmax := 0.1e9
run_T := 2.5e-9
T_step := 100e-12
length := 200e-9
width := 25e-9
height := 2.5e-9
sur_height := height / 8
delta := 100e-9
lattice_constant := 200e-9
N_unitcells := 8
Nx := 100
Ny := 256
Nz := 2
Lx := length
Ly := N_unitcells * lattice_constant
dX := length / Nx
dY := Ly / Ny
dZ := 5e-9 / Nz
vcma_x := 5e-9
ξ := 10e-12
dV := 2.5
tD := 20e-9
setGridSize(Nx, Ny, Nz)
setCellSize(dX, dY, dZ)
Bz := 0.01
Msat = 1273e3
Aex = 10e-12
anisU = vector(0, 0, 1)
alpha = 0.1
Xi = 0.2
demagAccuracy = 8
pinning := false
K_i := 1.5e6
K_eff := K_i - ξ*dV/tD
racetrack := cuboid(length, width, height)
racetrack_sur := cuboid(length, width, sur_height)
vcma := cuboid(vcma_x, Ly, height)
gap := delta - width
singleR := racetrack.repeat(0, lattice_constant, 0).transl(0, width/2, 0)
singleR_sur := racetrack_sur.repeat(0, lattice_constant, 0).transl(0, width/2, -sur_height/2)
twoR := singleR.add(singleR.transl(0, delta, 0))
twoR_sur := singleR_sur.add(singleR_sur.transl(0, delta, 0))
twoR_vcma := twoR.transl(0, 0, -height/2).add(vcma.transl(0, 0, height/2))
setgeom(twoR_vcma)
defRegion(1, singleR)
defRegion(2, singleR.transl(0, delta, 0))
defRegion(3, racetrack.transl(0, -Ly/2+width/2, 0))
defRegion(4, vcma.transl(0, 0, height/2))
defRegion(5, twoR_sur)
save(regions)
Ku1.setRegion(5, K_i)
Ku1.setRegion(4, K_eff)
B_ext.setregion(3, vector(0, 0, Bz*sinc(2*pi*fmax*(t-T/2))))
m.setRegion(1, twoDomain(0, 0, 1, 1, 1, 0, 0, 0, -1))
m.setRegion(2, twoDomain(0, 0, -1, 1, 1, 0, 0, 0, 1))
m.setRegion(3, twoDomain(0, 0, 1, 1, 1, 0, 0, 0, -1))
setPBC(0, 2, 0)
//resizing...
relax()
autosave(m, T_step)
tableadd(e_total)
tableautosave(T_step)
temp.set(1)
j = vector(0, 0, 0)
pol = 1
run(run_T)
//********************************************************************//
//Please cite the following references, relevant for your simulation. //
//See bibtex file in output folder for justification.                 //
//********************************************************************//
//   * Leliaert et al., AIP Adv. 7, 125010 (2017).
//   * Vansteenkiste et al., AIP Adv. 4, 107133 (2014).
